           4           4           4

  9.9756E-01  7.4793E-01  7.3754E-02  5.6682E-01  3.6739E-01  5.3552E-03  9.6592E-01  4.8064E-01  3.4708E-01
  3.4224E-01  9.0052E-01  6.6193E-01  2.1795E-01  3.8677E-01  1.6108E-02  1.3316E-01  4.4548E-01  6.5085E-01
  6.4641E-01  4.0129E-01  5.9840E-01  3.2299E-01  2.0687E-01  6.7298E-01  8.5569E-01  9.6854E-01  4.5688E-01
  3.3002E-01  6.0569E-01  6.5823E-01  1.0038E-01  7.1905E-01  1.5072E-01  7.5545E-01  8.9733E-01  6.1231E-01
  9.7866E-01  5.5087E-01  9.7776E-01  9.9914E-01  6.5905E-01  9.0192E-01  2.5680E-01  5.5401E-01  6.5792E-01
  7.2886E-01  1.4784E-01  3.3932E-01  4.0246E-01  6.7453E-01  1.1582E-01  9.2863E-01  7.6961E-01  6.1437E-01
  8.2062E-01  4.9760E-01  5.5290E-01  9.4709E-01  3.7480E-01  9.9792E-01  7.3113E-01  4.2151E-01  9.9039E-01
  7.4631E-01  7.3402E-01  7.0618E-01  9.5376E-01  7.5176E-01  8.1381E-01  9.3275E-02  9.4685E-01  5.5859E-01
  6.1706E-02  1.3753E-01  8.8588E-01  4.8038E-01  5.8740E-01  3.0381E-01  5.9769E-01  5.1997E-01  6.6966E-01
  6.6494E-01  7.6560E-02  3.7558E-01  5.0368E-01  1.0125E-01  1.5150E-02  2.6158E-01  5.4927E-01  7.9292E-01
  6.2088E-01  1.1424E-01  4.8153E-02  7.7360E-01  3.1846E-01  1.1421E-01  9.5358E-01  5.9682E-01  2.1596E-01
  1.0057E-01  4.4338E-01  2.4312E-02  7.3342E-02  2.0837E-01  4.2029E-01  2.4686E-01  5.6700E-01  3.9785E-01
  9.7659E-01  1.2992E-01  6.7849E-01  6.9261E-01  4.6777E-02  5.8195E-01  4.9434E-03  8.3978E-01  7.3353E-01
  1.1604E-01  7.4654E-01  6.6548E-01  8.4030E-01  8.4320E-01  7.3074E-01  8.3500E-01  5.2884E-01  4.1060E-01
  3.5572E-01  4.6263E-01  2.5797E-01  7.3538E-01  7.5969E-01  9.3771E-01  4.7132E-01  7.0246E-01  4.5610E-01
  8.0849E-01  2.1949E-01  3.0111E-01  9.0885E-01  8.5495E-01  6.7197E-01  6.9488E-01  7.4440E-01  6.1871E-01
  9.6757E-01  9.2077E-01  5.4653E-01  9.9024E-01  3.3907E-01  4.6551E-01  3.3801E-01  9.3094E-01  1.7691E-01
  3.7799E-01  6.6568E-01  3.1625E-01  1.7522E-01  6.1855E-01  2.6888E-01  3.5686E-01  4.6895E-01  1.9992E-01
  4.1543E-01  1.2952E-01  7.0903E-01  9.7930E-01  8.0474E-01  5.2897E-01  5.4321E-01  8.4582E-01  6.6384E-01
  9.0074E-01  8.6667E-01  1.6040E-01  9.4116E-01  6.3237E-01  2.1236E-02  1.1442E-01  2.4279E-01  1.9025E-01
  3.1234E-01  8.2626E-01  3.3092E-01  8.0965E-01  2.8645E-01  2.6585E-01  5.7372E-01  1.6051E-01  5.4478E-01
  5.5352E-01  1.0490E-01  9.0153E-01  2.1615E-02  6.1421E-01  9.4284E-01  1.4875E-01  4.0629E-01  1.5662E-01
  9.3696E-01  3.2151E-01  3.7859E-01  1.3547E-01  7.1496E-01  8.2893E-01  3.7128E-01  7.2971E-01  9.5366E-01
  3.0842E-01  8.4440E-01  5.3766E-01  5.7974E-01  2.5813E-01  6.2157E-01  2.3345E-01  8.3974E-01  4.9082E-01
  2.8484E-01  6.0717E-01  6.3762E-01  2.3556E-01  3.9815E-01  2.5882E-01  6.5138E-01  8.4879E-01  3.5883E-01
  5.6183E-01  3.8321E-01  9.0988E-01  1.2147E-01  7.2070E-01  5.4369E-01  9.7847E-01  3.5826E-01  9.5968E-01
  9.2947E-01  1.7474E-01  7.0589E-01  6.3332E-01  8.4258E-01  2.4244E-01  2.9561E-01  6.1859E-01  7.9796E-01
  3.9101E-01  2.9797E-02  7.5256E-01  1.0996E-01  7.0066E-01  6.4768E-01  7.5369E-01  5.2520E-01  8.7108E-01
  8.3072E-01  5.7949E-01  1.7481E-01  9.5718E-01  9.9076E-01  7.0954E-01  2.2227E-01  8.3997E-01  3.0155E-01
  2.5042E-02  7.5676E-01  4.9895E-01  9.1674E-01  9.3273E-01  5.9499E-02  6.8881E-01  5.5010E-02  1.7187E-01
  6.8836E-01  7.5217E-01  4.8963E-02  3.0662E-01  3.9572E-01  7.7936E-01  7.3519E-01  8.7785E-02  6.8078E-01
  3.1157E-01  4.3853E-01  2.9490E-01  5.2276E-01  5.8764E-01  7.3784E-02  5.0580E-01  2.9733E-01  9.7495E-01
  7.2816E-01  2.4650E-01  9.3779E-01  7.5809E-01  2.5689E-01  9.9218E-01  3.0918E-01  6.1806E-01  2.2482E-01
  9.4728E-01  5.5444E-01  8.9766E-01  8.4779E-01  4.4158E-01  1.4573E-01  7.0013E-01  2.4918E-01  4.3459E-01
  4.5738E-01  6.8974E-01  2.9315E-01  3.0938E-01  8.1080E-01  5.7598E-01  4.8092E-01  3.9216E-01  7.2534E-01
  1.4277E-01  5.3459E-01  1.9901E-01  3.3356E-01  7.2333E-01  9.7262E-01  1.6039E-01  2.2818E-01  9.9357E-01
  8.1952E-02  1.9578E-01  8.6392E-01  2.5088E-01  8.5027E-01  6.7134E-02  2.1585E-01  4.4682E-02  4.2732E-01
  1.3732E-01  6.1324E-01  7.5368E-01  1.1909E-01  6.6366E-01  6.2987E-01  3.0595E-01  8.9591E-01  2.2099E-01
  4.8384E-01  5.5919E-01  7.4543E-01  6.1502E-01  3.7088E-01  5.6973E-01  9.8766E-01  3.3759E-01  4.5614E-01
  6.4819E-01  2.7307E-01  3.9526E-01  6.8360E-01  4.4076E-01  6.8833E-01  1.7039E-01  4.5772E-01  2.9889E-01
  2.0523E-01  6.9065E-01  6.6246E-01  1.9228E-01  1.4056E-01  5.7568E-01  4.1900E-01  1.4374E-01  7.7495E-01
  7.7530E-01  9.9214E-02  1.3162E-01  7.6535E-01  3.3452E-01  8.0754E-01  8.7651E-01  6.4509E-01  5.4187E-01
  2.6575E-01  5.0483E-01  1.8963E-01  4.5887E-01  9.6177E-01  2.0112E-01  5.1093E-01  5.5024E-01  2.4874E-01
  9.7009E-01  4.9695E-01  8.5269E-02  7.7639E-01  3.9875E-01  7.3700E-01  2.7270E-01  6.1330E-01  8.6287E-01
  3.4104E-01  8.5496E-02  2.3279E-01  6.9444E-01  7.0798E-01  7.5198E-02  6.4188E-01  5.9246E-01  3.2434E-01
  9.1309E-01  7.2717E-01  7.6766E-01  2.0429E-01  2.8358E-02  8.9436E-01  4.5277E-01  5.1703E-01  9.4449E-01
  2.8981E-01  3.1278E-01  1.5353E-01  5.3147E-01  1.4152E-01  8.4922E-01  2.3283E-01  3.4258E-01  9.7205E-01
  4.4092E-01  8.6450E-01  7.2404E-01  7.7444E-01  7.2798E-01  6.0421E-01  4.5621E-01  6.3734E-01  2.6294E-02
  2.9277E-01  5.3185E-01  9.6358E-01  1.9719E-01  1.0359E-02  9.8612E-01  9.4866E-01  4.5214E-01  3.4091E-01
  9.5929E-01  7.9045E-01  4.4538E-01  3.2671E-01  7.2356E-01  3.8178E-01  7.0423E-01  7.2896E-01  9.2222E-01
  7.4842E-01  7.2941E-01  8.8542E-01  4.2673E-01  7.9692E-01  3.8313E-01  2.1743E-01  5.5842E-01  2.4080E-01
  3.1508E-01  4.2408E-01  3.0799E-01  4.3290E-01  7.3733E-01  8.4332E-01  4.7983E-02  8.7279E-01  8.1609E-01
  4.0680E-01  5.1208E-01  2.0485E-01  8.6499E-01  7.7641E-01  4.4513E-01  8.5225E-01  4.9286E-01  4.3355E-01
  5.4713E-02  3.8901E-01  9.9866E-01  7.0050E-01  2.4888E-01  6.6208E-01  9.1924E-01  3.6635E-01  1.7973E-01
  8.7238E-01  8.1822E-01  4.1631E-01  2.4396E-01  5.3564E-01  8.0820E-01  1.1639E-01  9.8805E-01  2.3994E-01
  9.7026E-01  1.3690E-01  5.5195E-01  3.7632E-01  7.6847E-01  8.3165E-01  6.3340E-01  1.0120E-01  3.7726E-01
  8.6777E-01  2.1161E-01  2.3052E-01  6.2466E-01  8.2272E-01  3.2911E-01  5.5231E-01  3.6360E-01  6.8009E-01
  4.2905E-01  4.4623E-01  7.9083E-01  4.5230E-01  6.6725E-01  1.9774E-01  9.2761E-01  7.8085E-01  2.5638E-01
  6.7680E-01  2.0037E-02  9.7475E-01  8.9853E-01  4.0200E-01  9.7028E-01  3.7501E-01  9.9096E-01  9.6884E-01
  3.7473E-01  8.2451E-01  6.2205E-01  9.7284E-02  7.2444E-01  3.0632E-01  7.5072E-01  3.6705E-01  3.0128E-01
  6.7638E-01  5.5944E-01  1.5825E-01  8.3006E-01  3.2780E-01  5.3288E-01  5.5632E-01  7.3070E-01  7.8419E-01
  2.1578E-01  2.2292E-01  1.9511E-01  3.2531E-01  4.6650E-01  2.0692E-01  5.0145E-01  1.8680E-01  9.0581E-01
  7.9992E-01  8.1099E-01  2.1932E-01  7.3495E-01  9.8837E-01  7.6188E-01  4.1535E-01  4.9112E-01  9.0731E-01
  5.8964E-01  9.3803E-01  1.9746E-02  8.7062E-01  4.6903E-02  9.9924E-01  3.8607E-02  8.9708E-01  9.8020E-01
